
  ___ ___ ___ _ _ _  
 |   |   |_  | | | | 
 | | | | | . | | | | 
 |__ |  _|___|_____|  0.9.1.9737
 |___|_|             

User:  josander@beda12-2.nfs.private
Date:  Thu Feb 12 16:29:16 2015
Arch:  x86_64
Pid:   14649
Dir:   /beda/sw/apps/GPAW/r9737-py26-i111-mkl102/lib/python2.6/site-packages/gpaw
ase:   /beda/sw/apps/ase/r2828/lib/python2.6/site-packages/ase (version 3.6.1.2828)
numpy: /beda/sw/apps/numpy/py26/1.5.1rc2/mkl10.2/lib/python2.6/site-packages/numpy (version 1.5.1rc2)
units: Angstrom and eV
cores: 8

Memory estimate
---------------
Process memory now: 46.75 MiB
Calculator  15.62 MiB
    Density  1.56 MiB
        Arrays  0.81 MiB
        Localized functions  0.56 MiB
        Mixer  0.19 MiB
    Hamiltonian  0.54 MiB
        Arrays  0.53 MiB
        XC  0.00 MiB
        Poisson  0.00 MiB
        vbar  0.01 MiB
    Wavefunctions  13.52 MiB
        Arrays psit_nG  5.23 MiB
        Eigensolver  0.06 MiB
        Projectors  7.18 MiB
        Overlap op  0.12 MiB
        PW-descriptor  0.93 MiB

Positions:
  0 Si    0.0000    0.0000    0.0000
  1 Si    1.3647    1.3647    1.3647

                    
                    
                    
                    
           Si       
                    
       Si           
                    
                    
                    
                    

Unit Cell:
           Periodic     X           Y           Z      Points  Spacing
  --------------------------------------------------------------------
  1. axis:    yes    0.000000    2.729500    2.729500    16     0.1970
  2. axis:    yes    2.729500    0.000000    2.729500    16     0.1970
  3. axis:    yes    2.729500    2.729500    0.000000    16     0.1970

Si-setup:
  name   : Silicon
  id     : ee77bee481871cc2cb65ac61239ccafa
  Z      : 14
  valence: 4
  core   : 10
  charge : 0.0
  file   : /beda/sw/apps/GPAW/r9737-py26-i111-mkl102/gpaw-setups-0.9.9672/Si.PBE.gz
  cutoffs: 1.06(comp), 1.86(filt), 2.06(core), lmax=2
  valence states:
            energy   radius
    3s(2)  -10.812   1.058
    3p(2)   -4.081   1.058
    *s      16.399   1.058
    *p      23.131   1.058
    *d       0.000   1.058

LCAO basis set for Si:
  Name: dzp
  Basis set was loaded from file /beda/sw/apps/GPAW/r9737-py26-i111-mkl102/gpaw-setups-0.9.9672/Si.dzp.basis.gz
  Number of radial functions: 5
  Number of spherical harmonics: 13
    l=0, rc=6.8594 Bohr: 3s-sz confined orbital
    l=1, rc=9.0625 Bohr: 3p-sz confined orbital
    l=0, rc=3.8906 Bohr: 3s-dz split-valence wave
    l=1, rc=5.2344 Bohr: 3p-dz split-valence wave
    l=2, rc=9.0625 Bohr: d-type Gaussian polarization

Using the PBE Exchange-Correlation Functional.
Spin-Paired Calculation
Total Charge:      0.000000
Fermi Temperature: 0.100000
Wave functions: Plane wave expansion
      Cutoff energy: 400.000 eV
      Number of coefficients (min, max): 730, 753
      Using FFTW library
Eigensolver:       rmm-diis
XC and Coulomb potentials evaluated on a 32*32*32 grid
Interpolation: FFT
Poisson solver: FFT
Reference Energy:  -15772.694083

Total number of cores used: 8
Parallelization over k-points: 2
Parallelization over states: 4

Symmetries present: 24
1728 k-points: 12 x 12 x 12 Monkhorst-Pack grid
182 k-points in the Irreducible Part of the Brillouin Zone
Linear Mixing Parameter:           0.1
Pulay Mixing with 3 Old Densities
Damping of Long Wave Oscillations: 50

Convergence Criteria:
Total Energy Change:           0.0005 eV / electron
Integral of Absolute Density Change:    0.0001 electrons
Integral of Absolute Eigenstate Change: 4e-08 eV^2
Number of Atoms: 2
Number of Atomic Orbitals: 26
Number of Bands in Calculation:         20
Bands to Converge:                      Occupied States Only
Number of Valence Electrons:            8
                     log10-error:    Total        Iterations:
           Time      WFS    Density  Energy       Fermi  Poisson
iter:   1  16:29:26  +2.3             -10.605478  4             
iter:   2  16:29:27  -2.1             -10.825424  3             
iter:   3  16:29:28  -3.7             -10.826667  1             
iter:   4  16:29:30  -3.2   -0.8      -10.816971  2             
iter:   5  16:29:32  -1.3   -0.9      -10.789071  5             
iter:   6  16:29:33  -2.6   -1.7      -10.794369  3             
iter:   7  16:29:35  -3.8   -2.1      -10.794853  2             
iter:   8  16:29:37  -5.2   -3.0      -10.794874  1             
iter:   9  16:29:39  -5.0   -3.0      -10.794876  2             
iter:  10  16:29:40  -6.8   -3.7      -10.794877  1             
iter:  11  16:29:42  -7.8   -3.9      -10.794877  1             
iter:  12  16:29:44  -8.6   -4.0      -10.794877  1             
------------------------------------
Converged After 12 Iterations.

Energy Contributions Relative to Reference Atoms:(reference = -15772.694083)
-------------------------
Kinetic:        +14.030888
Potential:      -12.454074
External:        +0.000000
XC:             -12.349086
Entropy (-ST):   -0.000646
Local:           -0.022282
-------------------------
Free Energy:    -10.795200
Zero Kelvin:    -10.794877

Fermi Level: 5.45814


Memory usage: 66.45 MB

============================================================
Timing:                               incl.     excl.
============================================================
IO:                                   0.302     0.000   0.0% |
 Write:                               0.302     0.000   0.0% |
  Atomic matrices:                    0.000     0.000   0.0% |
  Band energies:                      0.008     0.008   0.0% |
  Close:                              0.005     0.005   0.0% |
  Meta data:                          0.052     0.052   0.2% |
  Projections:                        0.030     0.030   0.1% |
  Pseudo-density:                     0.000     0.000   0.0% |
  Pseudo-potential:                   0.000     0.000   0.0% |
  Pseudo-wavefunctions:               0.207     0.207   0.7% |
Initialization:                       7.983     2.950  10.6% |---|
 Hamiltonian:                         0.211     0.008   0.0% |
  Atomic:                             0.170     0.000   0.0% |
   XC Correction:                     0.170     0.170   0.6% |
  Communicate energies:               0.000     0.000   0.0% |
  Initialize Hamiltonian:             0.000     0.000   0.0% |
  Poisson:                            0.000     0.000   0.0% |
  XC 3D grid:                         0.032     0.032   0.1% |
 LCAO initialization:                 4.702     0.164   0.6% |
  LCAO eigensolver:                   0.926     0.005   0.0% |
   Atomic Hamiltonian:                0.010     0.010   0.0% |
   Calculate projections:             0.003     0.003   0.0% |
   Distribute overlap matrix:         0.003     0.003   0.0% |
   Orbital Layouts:                   0.040     0.040   0.1% |
   Potential matrix:                  0.463     0.463   1.7% ||
   Sum over cells:                    0.402     0.402   1.4% ||
  LCAO to grid:                       1.876     1.876   6.8% |--|
  Set positions (LCAO WFS):           1.735     0.002   0.0% |
   Basic WFS set positions:           0.002     0.002   0.0% |
   Basis functions set positions:     0.000     0.000   0.0% |
   TCI: Calculate S, T, P:            1.731     1.731   6.2% |-|
 PWDescriptor:                        0.121     0.121   0.4% |
SCF-cycle:                           19.478     0.321   1.2% |
 Density:                             1.339     0.000   0.0% |
  Atomic density matrices:            0.064     0.064   0.2% |
  Mix:                                0.087     0.087   0.3% |
  Multipole moments:                  0.001     0.001   0.0% |
  Pseudo density:                     1.187     1.103   4.0% |-|
   Symmetrize density:                0.084     0.084   0.3% |
 Hamiltonian:                         1.865     0.074   0.3% |
  Atomic:                             1.526     0.002   0.0% |
   XC Correction:                     1.524     1.524   5.5% |-|
  Communicate energies:               0.000     0.000   0.0% |
  Poisson:                            0.003     0.003   0.0% |
  XC 3D grid:                         0.262     0.262   0.9% |
 Orthonormalize:                      3.017     0.048   0.2% |
  Band Layouts:                       0.059     0.010   0.0% |
   Inverse Cholesky:                  0.050     0.050   0.2% |
  calc_s_matrix:                      0.830     0.830   3.0% ||
  projections:                        1.137     1.137   4.1% |-|
  rotate_psi:                         0.943     0.943   3.4% ||
 RMM-DIIS:                            9.642     6.977  25.1% |---------|
  precondition:                       1.605     1.605   5.8% |-|
  projections:                        1.060     1.060   3.8% |-|
 Subspace diag:                       3.293     0.034   0.1% |
  Band Layouts:                       0.232     0.018   0.1% |
   Diagonalize:                       0.198     0.198   0.7% |
   Distribute results:                0.016     0.016   0.1% |
  calc_h_matrix:                      2.147     2.147   7.7% |--|
  rotate_psi:                         0.880     0.880   3.2% ||
Other:                                0.020     0.020   0.1% |
============================================================
Total:                                         27.784 100.0%
============================================================
date: Thu Feb 12 16:29:44 2015
